+ 0 0 2 tcp 40 ------- 0 0.0 3.0 0 0
- 0 0 2 tcp 40 ------- 0 0.0 3.0 0 0
r 0.002032 0 2 tcp 40 ------- 0 0.0 3.0 0 0
+ 0.002032 2 3 tcp 40 ------- 0 0.0 3.0 0 0
- 0.002032 2 3 tcp 40 ------- 0 0.0 3.0 0 0
r 0.022245 2 3 tcp 40 ------- 0 0.0 3.0 0 0
+ 0.022245 3 2 ack 40 ------- 0 3.0 0.0 0 1
- 0.022245 3 2 ack 40 ------- 0 3.0 0.0 0 1
r 0.042459 3 2 ack 40 ------- 0 3.0 0.0 0 1
+ 0.042459 2 0 ack 40 ------- 0 3.0 0.0 0 1
- 0.042459 2 0 ack 40 ------- 0 3.0 0.0 0 1
r 0.044491 2 0 ack 40 ------- 0 3.0 0.0 0 1
+ 0.044491 0 2 tcp 1040 ------- 0 0.0 3.0 1 2
- 0.044491 0 2 tcp 1040 ------- 0 0.0 3.0 1 2
+ 0.044491 0 2 tcp 1040 ------- 0 0.0 3.0 2 3
- 0.045323 0 2 tcp 1040 ------- 0 0.0 3.0 2 3
r 0.047323 0 2 tcp 1040 ------- 0 0.0 3.0 1 2
+ 0.047323 2 3 tcp 1040 ------- 0 0.0 3.0 1 2
- 0.047323 2 3 tcp 1040 ------- 0 0.0 3.0 1 2
r 0.048155 0 2 tcp 1040 ------- 0 0.0 3.0 2 3
+ 0.048155 2 3 tcp 1040 ------- 0 0.0 3.0 2 3
- 0.052869 2 3 tcp 1040 ------- 0 0.0 3.0 2 3
r 0.072869 2 3 tcp 1040 ------- 0 0.0 3.0 1 2
+ 0.072869 3 2 ack 40 ------- 0 3.0 0.0 1 4
- 0.072869 3 2 ack 40 ------- 0 3.0 0.0 1 4
r 0.078416 2 3 tcp 1040 ------- 0 0.0 3.0 2 3
+ 0.078416 3 2 ack 40 ------- 0 3.0 0.0 2 5
- 0.078416 3 2 ack 40 ------- 0 3.0 0.0 2 5
r 0.093083 3 2 ack 40 ------- 0 3.0 0.0 1 4
+ 0.093083 2 0 ack 40 ------- 0 3.0 0.0 1 4
- 0.093083 2 0 ack 40 ------- 0 3.0 0.0 1 4
r 0.095115 2 0 ack 40 ------- 0 3.0 0.0 1 4
+ 0.095115 0 2 tcp 1040 ------- 0 0.0 3.0 3 6
- 0.095115 0 2 tcp 1040 ------- 0 0.0 3.0 3 6
+ 0.095115 0 2 tcp 1040 ------- 0 0.0 3.0 4 7
- 0.095947 0 2 tcp 1040 ------- 0 0.0 3.0 4 7
r 0.097947 0 2 tcp 1040 ------- 0 0.0 3.0 3 6
+ 0.097947 2 3 tcp 1040 ------- 0 0.0 3.0 3 6
- 0.097947 2 3 tcp 1040 ------- 0 0.0 3.0 3 6
r 0.098629 3 2 ack 40 ------- 0 3.0 0.0 2 5
+ 0.098629 2 0 ack 40 ------- 0 3.0 0.0 2 5
- 0.098629 2 0 ack 40 ------- 0 3.0 0.0 2 5
r 0.098779 0 2 tcp 1040 ------- 0 0.0 3.0 4 7
+ 0.098779 2 3 tcp 1040 ------- 0 0.0 3.0 4 7
r 0.100661 2 0 ack 40 ------- 0 3.0 0.0 2 5
+ 0.100661 0 2 tcp 1040 ------- 0 0.0 3.0 5 8
- 0.100661 0 2 tcp 1040 ------- 0 0.0 3.0 5 8
+ 0.100661 0 2 tcp 1040 ------- 0 0.0 3.0 6 9
- 0.101493 0 2 tcp 1040 ------- 0 0.0 3.0 6 9
r 0.103493 0 2 tcp 1040 ------- 0 0.0 3.0 5 8
+ 0.103493 2 3 tcp 1040 ------- 0 0.0 3.0 5 8
- 0.103493 2 3 tcp 1040 ------- 0 0.0 3.0 4 7
r 0.104325 0 2 tcp 1040 ------- 0 0.0 3.0 6 9
+ 0.104325 2 3 tcp 1040 ------- 0 0.0 3.0 6 9
- 0.10904 2 3 tcp 1040 ------- 0 0.0 3.0 5 8
- 0.114587 2 3 tcp 1040 ------- 0 0.0 3.0 6 9
r 0.123493 2 3 tcp 1040 ------- 0 0.0 3.0 3 6
+ 0.123493 3 2 ack 40 ------- 0 3.0 0.0 3 10
- 0.123493 3 2 ack 40 ------- 0 3.0 0.0 3 10
r 0.12904 2 3 tcp 1040 ------- 0 0.0 3.0 4 7
+ 0.12904 3 2 ack 40 ------- 0 3.0 0.0 4 11
- 0.12904 3 2 ack 40 ------- 0 3.0 0.0 4 11
r 0.134587 2 3 tcp 1040 ------- 0 0.0 3.0 5 8
+ 0.134587 3 2 ack 40 ------- 0 3.0 0.0 5 12
- 0.134587 3 2 ack 40 ------- 0 3.0 0.0 5 12
r 0.140133 2 3 tcp 1040 ------- 0 0.0 3.0 6 9
+ 0.140133 3 2 ack 40 ------- 0 3.0 0.0 6 13
- 0.140133 3 2 ack 40 ------- 0 3.0 0.0 6 13
r 0.143707 3 2 ack 40 ------- 0 3.0 0.0 3 10
+ 0.143707 2 0 ack 40 ------- 0 3.0 0.0 3 10
- 0.143707 2 0 ack 40 ------- 0 3.0 0.0 3 10
r 0.145739 2 0 ack 40 ------- 0 3.0 0.0 3 10
+ 0.145739 0 2 tcp 1040 ------- 0 0.0 3.0 7 14
- 0.145739 0 2 tcp 1040 ------- 0 0.0 3.0 7 14
+ 0.145739 0 2 tcp 1040 ------- 0 0.0 3.0 8 15
- 0.146571 0 2 tcp 1040 ------- 0 0.0 3.0 8 15
r 0.148571 0 2 tcp 1040 ------- 0 0.0 3.0 7 14
+ 0.148571 2 3 tcp 1040 ------- 0 0.0 3.0 7 14
- 0.148571 2 3 tcp 1040 ------- 0 0.0 3.0 7 14
r 0.149253 3 2 ack 40 ------- 0 3.0 0.0 4 11
+ 0.149253 2 0 ack 40 ------- 0 3.0 0.0 4 11
- 0.149253 2 0 ack 40 ------- 0 3.0 0.0 4 11
r 0.149403 0 2 tcp 1040 ------- 0 0.0 3.0 8 15
+ 0.149403 2 3 tcp 1040 ------- 0 0.0 3.0 8 15
r 0.151285 2 0 ack 40 ------- 0 3.0 0.0 4 11
+ 0.151285 0 2 tcp 1040 ------- 0 0.0 3.0 9 16
- 0.151285 0 2 tcp 1040 ------- 0 0.0 3.0 9 16
+ 0.151285 0 2 tcp 1040 ------- 0 0.0 3.0 10 17
- 0.152117 0 2 tcp 1040 ------- 0 0.0 3.0 10 17
- 0.154117 2 3 tcp 1040 ------- 0 0.0 3.0 8 15
r 0.154117 0 2 tcp 1040 ------- 0 0.0 3.0 9 16
+ 0.154117 2 3 tcp 1040 ------- 0 0.0 3.0 9 16
r 0.1548 3 2 ack 40 ------- 0 3.0 0.0 5 12
+ 0.1548 2 0 ack 40 ------- 0 3.0 0.0 5 12
- 0.1548 2 0 ack 40 ------- 0 3.0 0.0 5 12
r 0.154949 0 2 tcp 1040 ------- 0 0.0 3.0 10 17
+ 0.154949 2 3 tcp 1040 ------- 0 0.0 3.0 10 17
r 0.156832 2 0 ack 40 ------- 0 3.0 0.0 5 12
+ 0.156832 0 2 tcp 1040 ------- 0 0.0 3.0 11 18
- 0.156832 0 2 tcp 1040 ------- 0 0.0 3.0 11 18
+ 0.156832 0 2 tcp 1040 ------- 0 0.0 3.0 12 19
- 0.157664 0 2 tcp 1040 ------- 0 0.0 3.0 12 19
- 0.159664 2 3 tcp 1040 ------- 0 0.0 3.0 9 16
r 0.159664 0 2 tcp 1040 ------- 0 0.0 3.0 11 18
+ 0.159664 2 3 tcp 1040 ------- 0 0.0 3.0 11 18
r 0.160347 3 2 ack 40 ------- 0 3.0 0.0 6 13
+ 0.160347 2 0 ack 40 ------- 0 3.0 0.0 6 13
- 0.160347 2 0 ack 40 ------- 0 3.0 0.0 6 13
r 0.160496 0 2 tcp 1040 ------- 0 0.0 3.0 12 19
+ 0.160496 2 3 tcp 1040 ------- 0 0.0 3.0 12 19
r 0.162379 2 0 ack 40 ------- 0 3.0 0.0 6 13
+ 0.162379 0 2 tcp 1040 ------- 0 0.0 3.0 13 20
- 0.162379 0 2 tcp 1040 ------- 0 0.0 3.0 13 20
+ 0.162379 0 2 tcp 1040 ------- 0 0.0 3.0 14 21
- 0.163211 0 2 tcp 1040 ------- 0 0.0 3.0 14 21
- 0.165211 2 3 tcp 1040 ------- 0 0.0 3.0 10 17
r 0.165211 0 2 tcp 1040 ------- 0 0.0 3.0 13 20
+ 0.165211 2 3 tcp 1040 ------- 0 0.0 3.0 13 20
r 0.166043 0 2 tcp 1040 ------- 0 0.0 3.0 14 21
+ 0.166043 2 3 tcp 1040 ------- 0 0.0 3.0 14 21
- 0.170757 2 3 tcp 1040 ------- 0 0.0 3.0 11 18
r 0.174117 2 3 tcp 1040 ------- 0 0.0 3.0 7 14
+ 0.174117 3 2 ack 40 ------- 0 3.0 0.0 7 22
- 0.174117 3 2 ack 40 ------- 0 3.0 0.0 7 22
- 0.176304 2 3 tcp 1040 ------- 0 0.0 3.0 12 19
r 0.179664 2 3 tcp 1040 ------- 0 0.0 3.0 8 15
+ 0.179664 3 2 ack 40 ------- 0 3.0 0.0 8 23
- 0.179664 3 2 ack 40 ------- 0 3.0 0.0 8 23
- 0.181851 2 3 tcp 1040 ------- 0 0.0 3.0 13 20
r 0.185211 2 3 tcp 1040 ------- 0 0.0 3.0 9 16
+ 0.185211 3 2 ack 40 ------- 0 3.0 0.0 9 24
- 0.185211 3 2 ack 40 ------- 0 3.0 0.0 9 24
- 0.187397 2 3 tcp 1040 ------- 0 0.0 3.0 14 21
r 0.190757 2 3 tcp 1040 ------- 0 0.0 3.0 10 17
+ 0.190757 3 2 ack 40 ------- 0 3.0 0.0 10 25
- 0.190757 3 2 ack 40 ------- 0 3.0 0.0 10 25
r 0.194331 3 2 ack 40 ------- 0 3.0 0.0 7 22
+ 0.194331 2 0 ack 40 ------- 0 3.0 0.0 7 22
- 0.194331 2 0 ack 40 ------- 0 3.0 0.0 7 22
r 0.196304 2 3 tcp 1040 ------- 0 0.0 3.0 11 18
+ 0.196304 3 2 ack 40 ------- 0 3.0 0.0 11 26
- 0.196304 3 2 ack 40 ------- 0 3.0 0.0 11 26
r 0.196363 2 0 ack 40 ------- 0 3.0 0.0 7 22
+ 0.196363 0 2 tcp 1040 ------- 0 0.0 3.0 15 27
- 0.196363 0 2 tcp 1040 ------- 0 0.0 3.0 15 27
+ 0.196363 0 2 tcp 1040 ------- 0 0.0 3.0 16 28
- 0.197195 0 2 tcp 1040 ------- 0 0.0 3.0 16 28
r 0.199195 0 2 tcp 1040 ------- 0 0.0 3.0 15 27
+ 0.199195 2 3 tcp 1040 ------- 0 0.0 3.0 15 27
- 0.199195 2 3 tcp 1040 ------- 0 0.0 3.0 15 27
r 0.199877 3 2 ack 40 ------- 0 3.0 0.0 8 23
+ 0.199877 2 0 ack 40 ------- 0 3.0 0.0 8 23
- 0.199877 2 0 ack 40 ------- 0 3.0 0.0 8 23
r 0.200027 0 2 tcp 1040 ------- 0 0.0 3.0 16 28
+ 0.200027 2 3 tcp 1040 ------- 0 0.0 3.0 16 28
r 0.201851 2 3 tcp 1040 ------- 0 0.0 3.0 12 19
+ 0.201851 3 2 ack 40 ------- 0 3.0 0.0 12 29
- 0.201851 3 2 ack 40 ------- 0 3.0 0.0 12 29
r 0.201909 2 0 ack 40 ------- 0 3.0 0.0 8 23
+ 0.201909 0 2 tcp 1040 ------- 0 0.0 3.0 17 30
- 0.201909 0 2 tcp 1040 ------- 0 0.0 3.0 17 30
+ 0.201909 0 2 tcp 1040 ------- 0 0.0 3.0 18 31
- 0.202741 0 2 tcp 1040 ------- 0 0.0 3.0 18 31
- 0.204741 2 3 tcp 1040 ------- 0 0.0 3.0 16 28
r 0.204741 0 2 tcp 1040 ------- 0 0.0 3.0 17 30
+ 0.204741 2 3 tcp 1040 ------- 0 0.0 3.0 17 30
r 0.205424 3 2 ack 40 ------- 0 3.0 0.0 9 24
+ 0.205424 2 0 ack 40 ------- 0 3.0 0.0 9 24
- 0.205424 2 0 ack 40 ------- 0 3.0 0.0 9 24
r 0.205573 0 2 tcp 1040 ------- 0 0.0 3.0 18 31
+ 0.205573 2 3 tcp 1040 ------- 0 0.0 3.0 18 31
r 0.207397 2 3 tcp 1040 ------- 0 0.0 3.0 13 20
+ 0.207397 3 2 ack 40 ------- 0 3.0 0.0 13 32
- 0.207397 3 2 ack 40 ------- 0 3.0 0.0 13 32
r 0.207456 2 0 ack 40 ------- 0 3.0 0.0 9 24
+ 0.207456 0 2 tcp 1040 ------- 0 0.0 3.0 19 33
- 0.207456 0 2 tcp 1040 ------- 0 0.0 3.0 19 33
+ 0.207456 0 2 tcp 1040 ------- 0 0.0 3.0 20 34
- 0.208288 0 2 tcp 1040 ------- 0 0.0 3.0 20 34
- 0.210288 2 3 tcp 1040 ------- 0 0.0 3.0 17 30
r 0.210288 0 2 tcp 1040 ------- 0 0.0 3.0 19 33
+ 0.210288 2 3 tcp 1040 ------- 0 0.0 3.0 19 33
r 0.210971 3 2 ack 40 ------- 0 3.0 0.0 10 25
+ 0.210971 2 0 ack 40 ------- 0 3.0 0.0 10 25
- 0.210971 2 0 ack 40 ------- 0 3.0 0.0 10 25
r 0.21112 0 2 tcp 1040 ------- 0 0.0 3.0 20 34
+ 0.21112 2 3 tcp 1040 ------- 0 0.0 3.0 20 34
r 0.212944 2 3 tcp 1040 ------- 0 0.0 3.0 14 21
+ 0.212944 3 2 ack 40 ------- 0 3.0 0.0 14 35
- 0.212944 3 2 ack 40 ------- 0 3.0 0.0 14 35
r 0.213003 2 0 ack 40 ------- 0 3.0 0.0 10 25
+ 0.213003 0 2 tcp 1040 ------- 0 0.0 3.0 21 36
- 0.213003 0 2 tcp 1040 ------- 0 0.0 3.0 21 36
+ 0.213003 0 2 tcp 1040 ------- 0 0.0 3.0 22 37
- 0.213835 0 2 tcp 1040 ------- 0 0.0 3.0 22 37
- 0.215835 2 3 tcp 1040 ------- 0 0.0 3.0 18 31
r 0.215835 0 2 tcp 1040 ------- 0 0.0 3.0 21 36
+ 0.215835 2 3 tcp 1040 ------- 0 0.0 3.0 21 36
r 0.216517 3 2 ack 40 ------- 0 3.0 0.0 11 26
+ 0.216517 2 0 ack 40 ------- 0 3.0 0.0 11 26
- 0.216517 2 0 ack 40 ------- 0 3.0 0.0 11 26
r 0.216667 0 2 tcp 1040 ------- 0 0.0 3.0 22 37
+ 0.216667 2 3 tcp 1040 ------- 0 0.0 3.0 22 37
r 0.218549 2 0 ack 40 ------- 0 3.0 0.0 11 26
+ 0.218549 0 2 tcp 1040 ------- 0 0.0 3.0 23 38
- 0.218549 0 2 tcp 1040 ------- 0 0.0 3.0 23 38
+ 0.218549 0 2 tcp 1040 ------- 0 0.0 3.0 24 39
- 0.219381 0 2 tcp 1040 ------- 0 0.0 3.0 24 39
- 0.221381 2 3 tcp 1040 ------- 0 0.0 3.0 19 33
r 0.221381 0 2 tcp 1040 ------- 0 0.0 3.0 23 38
+ 0.221381 2 3 tcp 1040 ------- 0 0.0 3.0 23 38
r 0.222064 3 2 ack 40 ------- 0 3.0 0.0 12 29
+ 0.222064 2 0 ack 40 ------- 0 3.0 0.0 12 29
- 0.222064 2 0 ack 40 ------- 0 3.0 0.0 12 29
r 0.222213 0 2 tcp 1040 ------- 0 0.0 3.0 24 39
+ 0.222213 2 3 tcp 1040 ------- 0 0.0 3.0 24 39
r 0.224096 2 0 ack 40 ------- 0 3.0 0.0 12 29
+ 0.224096 0 2 tcp 1040 ------- 0 0.0 3.0 25 40
- 0.224096 0 2 tcp 1040 ------- 0 0.0 3.0 25 40
+ 0.224096 0 2 tcp 1040 ------- 0 0.0 3.0 26 41
r 0.224741 2 3 tcp 1040 ------- 0 0.0 3.0 15 27
+ 0.224741 3 2 ack 40 ------- 0 3.0 0.0 15 42
- 0.224741 3 2 ack 40 ------- 0 3.0 0.0 15 42
- 0.224928 0 2 tcp 1040 ------- 0 0.0 3.0 26 41
- 0.226928 2 3 tcp 1040 ------- 0 0.0 3.0 20 34
r 0.226928 0 2 tcp 1040 ------- 0 0.0 3.0 25 40
+ 0.226928 2 3 tcp 1040 ------- 0 0.0 3.0 25 40
r 0.227611 3 2 ack 40 ------- 0 3.0 0.0 13 32
+ 0.227611 2 0 ack 40 ------- 0 3.0 0.0 13 32
- 0.227611 2 0 ack 40 ------- 0 3.0 0.0 13 32
r 0.22776 0 2 tcp 1040 ------- 0 0.0 3.0 26 41
+ 0.22776 2 3 tcp 1040 ------- 0 0.0 3.0 26 41
r 0.229643 2 0 ack 40 ------- 0 3.0 0.0 13 32
+ 0.229643 0 2 tcp 1040 ------- 0 0.0 3.0 27 43
- 0.229643 0 2 tcp 1040 ------- 0 0.0 3.0 27 43
+ 0.229643 0 2 tcp 1040 ------- 0 0.0 3.0 28 44
r 0.230288 2 3 tcp 1040 ------- 0 0.0 3.0 16 28
+ 0.230288 3 2 ack 40 ------- 0 3.0 0.0 16 45
- 0.230288 3 2 ack 40 ------- 0 3.0 0.0 16 45
- 0.230475 0 2 tcp 1040 ------- 0 0.0 3.0 28 44
- 0.232475 2 3 tcp 1040 ------- 0 0.0 3.0 21 36
r 0.232475 0 2 tcp 1040 ------- 0 0.0 3.0 27 43
+ 0.232475 2 3 tcp 1040 ------- 0 0.0 3.0 27 43
r 0.233157 3 2 ack 40 ------- 0 3.0 0.0 14 35
+ 0.233157 2 0 ack 40 ------- 0 3.0 0.0 14 35
- 0.233157 2 0 ack 40 ------- 0 3.0 0.0 14 35
r 0.233307 0 2 tcp 1040 ------- 0 0.0 3.0 28 44
+ 0.233307 2 3 tcp 1040 ------- 0 0.0 3.0 28 44
r 0.235189 2 0 ack 40 ------- 0 3.0 0.0 14 35
+ 0.235189 0 2 tcp 1040 ------- 0 0.0 3.0 29 46
- 0.235189 0 2 tcp 1040 ------- 0 0.0 3.0 29 46
+ 0.235189 0 2 tcp 1040 ------- 0 0.0 3.0 30 47
r 0.235835 2 3 tcp 1040 ------- 0 0.0 3.0 17 30
+ 0.235835 3 2 ack 40 ------- 0 3.0 0.0 17 48
- 0.235835 3 2 ack 40 ------- 0 3.0 0.0 17 48
- 0.236021 0 2 tcp 1040 ------- 0 0.0 3.0 30 47
- 0.238021 2 3 tcp 1040 ------- 0 0.0 3.0 22 37
r 0.238021 0 2 tcp 1040 ------- 0 0.0 3.0 29 46
+ 0.238021 2 3 tcp 1040 ------- 0 0.0 3.0 29 46
r 0.238853 0 2 tcp 1040 ------- 0 0.0 3.0 30 47
+ 0.238853 2 3 tcp 1040 ------- 0 0.0 3.0 30 47
r 0.241381 2 3 tcp 1040 ------- 0 0.0 3.0 18 31
+ 0.241381 3 2 ack 40 ------- 0 3.0 0.0 18 49
- 0.241381 3 2 ack 40 ------- 0 3.0 0.0 18 49
- 0.243568 2 3 tcp 1040 ------- 0 0.0 3.0 23 38
r 0.244955 3 2 ack 40 ------- 0 3.0 0.0 15 42
+ 0.244955 2 0 ack 40 ------- 0 3.0 0.0 15 42
- 0.244955 2 0 ack 40 ------- 0 3.0 0.0 15 42
r 0.246928 2 3 tcp 1040 ------- 0 0.0 3.0 19 33
+ 0.246928 3 2 ack 40 ------- 0 3.0 0.0 19 50
- 0.246928 3 2 ack 40 ------- 0 3.0 0.0 19 50
r 0.246987 2 0 ack 40 ------- 0 3.0 0.0 15 42
+ 0.246987 0 2 tcp 1040 ------- 0 0.0 3.0 31 51
- 0.246987 0 2 tcp 1040 ------- 0 0.0 3.0 31 51
+ 0.246987 0 2 tcp 1040 ------- 0 0.0 3.0 32 52
- 0.247819 0 2 tcp 1040 ------- 0 0.0 3.0 32 52
- 0.249115 2 3 tcp 1040 ------- 0 0.0 3.0 24 39
r 0.249819 0 2 tcp 1040 ------- 0 0.0 3.0 31 51
+ 0.249819 2 3 tcp 1040 ------- 0 0.0 3.0 31 51
r 0.250501 3 2 ack 40 ------- 0 3.0 0.0 16 45
+ 0.250501 2 0 ack 40 ------- 0 3.0 0.0 16 45
- 0.250501 2 0 ack 40 ------- 0 3.0 0.0 16 45
r 0.250651 0 2 tcp 1040 ------- 0 0.0 3.0 32 52
+ 0.250651 2 3 tcp 1040 ------- 0 0.0 3.0 32 52
r 0.252475 2 3 tcp 1040 ------- 0 0.0 3.0 20 34
+ 0.252475 3 2 ack 40 ------- 0 3.0 0.0 20 53
- 0.252475 3 2 ack 40 ------- 0 3.0 0.0 20 53
r 0.252533 2 0 ack 40 ------- 0 3.0 0.0 16 45
+ 0.252533 0 2 tcp 1040 ------- 0 0.0 3.0 33 54
- 0.252533 0 2 tcp 1040 ------- 0 0.0 3.0 33 54
+ 0.252533 0 2 tcp 1040 ------- 0 0.0 3.0 34 55
- 0.253365 0 2 tcp 1040 ------- 0 0.0 3.0 34 55
- 0.254661 2 3 tcp 1040 ------- 0 0.0 3.0 25 40
r 0.255365 0 2 tcp 1040 ------- 0 0.0 3.0 33 54
+ 0.255365 2 3 tcp 1040 ------- 0 0.0 3.0 33 54
r 0.256048 3 2 ack 40 ------- 0 3.0 0.0 17 48
+ 0.256048 2 0 ack 40 ------- 0 3.0 0.0 17 48
- 0.256048 2 0 ack 40 ------- 0 3.0 0.0 17 48
r 0.256197 0 2 tcp 1040 ------- 0 0.0 3.0 34 55
+ 0.256197 2 3 tcp 1040 ------- 0 0.0 3.0 34 55
r 0.258021 2 3 tcp 1040 ------- 0 0.0 3.0 21 36
+ 0.258021 3 2 ack 40 ------- 0 3.0 0.0 21 56
- 0.258021 3 2 ack 40 ------- 0 3.0 0.0 21 56
r 0.25808 2 0 ack 40 ------- 0 3.0 0.0 17 48
+ 0.25808 0 2 tcp 1040 ------- 0 0.0 3.0 35 57
- 0.25808 0 2 tcp 1040 ------- 0 0.0 3.0 35 57
+ 0.25808 0 2 tcp 1040 ------- 0 0.0 3.0 36 58
- 0.258912 0 2 tcp 1040 ------- 0 0.0 3.0 36 58
- 0.260208 2 3 tcp 1040 ------- 0 0.0 3.0 26 41
r 0.260912 0 2 tcp 1040 ------- 0 0.0 3.0 35 57
+ 0.260912 2 3 tcp 1040 ------- 0 0.0 3.0 35 57
r 0.261595 3 2 ack 40 ------- 0 3.0 0.0 18 49
+ 0.261595 2 0 ack 40 ------- 0 3.0 0.0 18 49
- 0.261595 2 0 ack 40 ------- 0 3.0 0.0 18 49
r 0.261744 0 2 tcp 1040 ------- 0 0.0 3.0 36 58
+ 0.261744 2 3 tcp 1040 ------- 0 0.0 3.0 36 58
r 0.263568 2 3 tcp 1040 ------- 0 0.0 3.0 22 37
+ 0.263568 3 2 ack 40 ------- 0 3.0 0.0 22 59
- 0.263568 3 2 ack 40 ------- 0 3.0 0.0 22 59
r 0.263627 2 0 ack 40 ------- 0 3.0 0.0 18 49
+ 0.263627 0 2 tcp 1040 ------- 0 0.0 3.0 37 60
- 0.263627 0 2 tcp 1040 ------- 0 0.0 3.0 37 60
+ 0.263627 0 2 tcp 1040 ------- 0 0.0 3.0 38 61
- 0.264459 0 2 tcp 1040 ------- 0 0.0 3.0 38 61
- 0.265755 2 3 tcp 1040 ------- 0 0.0 3.0 27 43
r 0.266459 0 2 tcp 1040 ------- 0 0.0 3.0 37 60
+ 0.266459 2 3 tcp 1040 ------- 0 0.0 3.0 37 60
r 0.267141 3 2 ack 40 ------- 0 3.0 0.0 19 50
+ 0.267141 2 0 ack 40 ------- 0 3.0 0.0 19 50
- 0.267141 2 0 ack 40 ------- 0 3.0 0.0 19 50
r 0.267291 0 2 tcp 1040 ------- 0 0.0 3.0 38 61
+ 0.267291 2 3 tcp 1040 ------- 0 0.0 3.0 38 61
r 0.269115 2 3 tcp 1040 ------- 0 0.0 3.0 23 38
+ 0.269115 3 2 ack 40 ------- 0 3.0 0.0 23 62
- 0.269115 3 2 ack 40 ------- 0 3.0 0.0 23 62
r 0.269173 2 0 ack 40 ------- 0 3.0 0.0 19 50
+ 0.269173 0 2 tcp 1040 ------- 0 0.0 3.0 39 63
- 0.269173 0 2 tcp 1040 ------- 0 0.0 3.0 39 63
+ 0.269173 0 2 tcp 1040 ------- 0 0.0 3.0 40 64
- 0.270005 0 2 tcp 1040 ------- 0 0.0 3.0 40 64
- 0.271301 2 3 tcp 1040 ------- 0 0.0 3.0 28 44
r 0.272005 0 2 tcp 1040 ------- 0 0.0 3.0 39 63
+ 0.272005 2 3 tcp 1040 ------- 0 0.0 3.0 39 63
r 0.272688 3 2 ack 40 ------- 0 3.0 0.0 20 53
+ 0.272688 2 0 ack 40 ------- 0 3.0 0.0 20 53
- 0.272688 2 0 ack 40 ------- 0 3.0 0.0 20 53
r 0.272837 0 2 tcp 1040 ------- 0 0.0 3.0 40 64
+ 0.272837 2 3 tcp 1040 ------- 0 0.0 3.0 40 64
r 0.274661 2 3 tcp 1040 ------- 0 0.0 3.0 24 39
+ 0.274661 3 2 ack 40 ------- 0 3.0 0.0 24 65
- 0.274661 3 2 ack 40 ------- 0 3.0 0.0 24 65
r 0.27472 2 0 ack 40 ------- 0 3.0 0.0 20 53
+ 0.27472 0 2 tcp 1040 ------- 0 0.0 3.0 41 66
- 0.27472 0 2 tcp 1040 ------- 0 0.0 3.0 41 66
+ 0.27472 0 2 tcp 1040 ------- 0 0.0 3.0 42 67
- 0.275552 0 2 tcp 1040 ------- 0 0.0 3.0 42 67
- 0.276848 2 3 tcp 1040 ------- 0 0.0 3.0 29 46
r 0.277552 0 2 tcp 1040 ------- 0 0.0 3.0 41 66
+ 0.277552 2 3 tcp 1040 ------- 0 0.0 3.0 41 66
r 0.278235 3 2 ack 40 ------- 0 3.0 0.0 21 56
+ 0.278235 2 0 ack 40 ------- 0 3.0 0.0 21 56
- 0.278235 2 0 ack 40 ------- 0 3.0 0.0 21 56
r 0.278384 0 2 tcp 1040 ------- 0 0.0 3.0 42 67
+ 0.278384 2 3 tcp 1040 ------- 0 0.0 3.0 42 67
r 0.280208 2 3 tcp 1040 ------- 0 0.0 3.0 25 40
+ 0.280208 3 2 ack 40 ------- 0 3.0 0.0 25 68
- 0.280208 3 2 ack 40 ------- 0 3.0 0.0 25 68
r 0.280267 2 0 ack 40 ------- 0 3.0 0.0 21 56
+ 0.280267 0 2 tcp 1040 ------- 0 0.0 3.0 43 69
- 0.280267 0 2 tcp 1040 ------- 0 0.0 3.0 43 69
+ 0.280267 0 2 tcp 1040 ------- 0 0.0 3.0 44 70
- 0.281099 0 2 tcp 1040 ------- 0 0.0 3.0 44 70
- 0.282395 2 3 tcp 1040 ------- 0 0.0 3.0 30 47
r 0.283099 0 2 tcp 1040 ------- 0 0.0 3.0 43 69
+ 0.283099 2 3 tcp 1040 ------- 0 0.0 3.0 43 69
r 0.283781 3 2 ack 40 ------- 0 3.0 0.0 22 59
+ 0.283781 2 0 ack 40 ------- 0 3.0 0.0 22 59
- 0.283781 2 0 ack 40 ------- 0 3.0 0.0 22 59
r 0.283931 0 2 tcp 1040 ------- 0 0.0 3.0 44 70
+ 0.283931 2 3 tcp 1040 ------- 0 0.0 3.0 44 70
r 0.285755 2 3 tcp 1040 ------- 0 0.0 3.0 26 41
+ 0.285755 3 2 ack 40 ------- 0 3.0 0.0 26 71
- 0.285755 3 2 ack 40 ------- 0 3.0 0.0 26 71
r 0.285813 2 0 ack 40 ------- 0 3.0 0.0 22 59
+ 0.285813 0 2 tcp 1040 ------- 0 0.0 3.0 45 72
- 0.285813 0 2 tcp 1040 ------- 0 0.0 3.0 45 72
+ 0.285813 0 2 tcp 1040 ------- 0 0.0 3.0 46 73
- 0.286645 0 2 tcp 1040 ------- 0 0.0 3.0 46 73
- 0.287941 2 3 tcp 1040 ------- 0 0.0 3.0 31 51
r 0.288645 0 2 tcp 1040 ------- 0 0.0 3.0 45 72
+ 0.288645 2 3 tcp 1040 ------- 0 0.0 3.0 45 72
r 0.289328 3 2 ack 40 ------- 0 3.0 0.0 23 62
+ 0.289328 2 0 ack 40 ------- 0 3.0 0.0 23 62
- 0.289328 2 0 ack 40 ------- 0 3.0 0.0 23 62
r 0.289477 0 2 tcp 1040 ------- 0 0.0 3.0 46 73
+ 0.289477 2 3 tcp 1040 ------- 0 0.0 3.0 46 73
r 0.291301 2 3 tcp 1040 ------- 0 0.0 3.0 27 43
+ 0.291301 3 2 ack 40 ------- 0 3.0 0.0 27 74
- 0.291301 3 2 ack 40 ------- 0 3.0 0.0 27 74
r 0.29136 2 0 ack 40 ------- 0 3.0 0.0 23 62
+ 0.29136 0 2 tcp 1040 ------- 0 0.0 3.0 47 75
- 0.29136 0 2 tcp 1040 ------- 0 0.0 3.0 47 75
+ 0.29136 0 2 tcp 1040 ------- 0 0.0 3.0 48 76
- 0.292192 0 2 tcp 1040 ------- 0 0.0 3.0 48 76
- 0.293488 2 3 tcp 1040 ------- 0 0.0 3.0 32 52
r 0.294192 0 2 tcp 1040 ------- 0 0.0 3.0 47 75
+ 0.294192 2 3 tcp 1040 ------- 0 0.0 3.0 47 75
r 0.294875 3 2 ack 40 ------- 0 3.0 0.0 24 65
+ 0.294875 2 0 ack 40 ------- 0 3.0 0.0 24 65
- 0.294875 2 0 ack 40 ------- 0 3.0 0.0 24 65
r 0.295024 0 2 tcp 1040 ------- 0 0.0 3.0 48 76
+ 0.295024 2 3 tcp 1040 ------- 0 0.0 3.0 48 76
r 0.296848 2 3 tcp 1040 ------- 0 0.0 3.0 28 44
+ 0.296848 3 2 ack 40 ------- 0 3.0 0.0 28 77
- 0.296848 3 2 ack 40 ------- 0 3.0 0.0 28 77
r 0.296907 2 0 ack 40 ------- 0 3.0 0.0 24 65
+ 0.296907 0 2 tcp 1040 ------- 0 0.0 3.0 49 78
- 0.296907 0 2 tcp 1040 ------- 0 0.0 3.0 49 78
+ 0.296907 0 2 tcp 1040 ------- 0 0.0 3.0 50 79
- 0.297739 0 2 tcp 1040 ------- 0 0.0 3.0 50 79
- 0.299035 2 3 tcp 1040 ------- 0 0.0 3.0 33 54
r 0.299739 0 2 tcp 1040 ------- 0 0.0 3.0 49 78
+ 0.299739 2 3 tcp 1040 ------- 0 0.0 3.0 49 78
r 0.300421 3 2 ack 40 ------- 0 3.0 0.0 25 68
+ 0.300421 2 0 ack 40 ------- 0 3.0 0.0 25 68
- 0.300421 2 0 ack 40 ------- 0 3.0 0.0 25 68
r 0.300571 0 2 tcp 1040 ------- 0 0.0 3.0 50 79
+ 0.300571 2 3 tcp 1040 ------- 0 0.0 3.0 50 79
r 0.302395 2 3 tcp 1040 ------- 0 0.0 3.0 29 46
+ 0.302395 3 2 ack 40 ------- 0 3.0 0.0 29 80
- 0.302395 3 2 ack 40 ------- 0 3.0 0.0 29 80
r 0.302453 2 0 ack 40 ------- 0 3.0 0.0 25 68
+ 0.302453 0 2 tcp 1040 ------- 0 0.0 3.0 51 81
- 0.302453 0 2 tcp 1040 ------- 0 0.0 3.0 51 81
+ 0.302453 0 2 tcp 1040 ------- 0 0.0 3.0 52 82
- 0.303285 0 2 tcp 1040 ------- 0 0.0 3.0 52 82
- 0.304581 2 3 tcp 1040 ------- 0 0.0 3.0 34 55
r 0.305285 0 2 tcp 1040 ------- 0 0.0 3.0 51 81
+ 0.305285 2 3 tcp 1040 ------- 0 0.0 3.0 51 81
r 0.305968 3 2 ack 40 ------- 0 3.0 0.0 26 71
+ 0.305968 2 0 ack 40 ------- 0 3.0 0.0 26 71
- 0.305968 2 0 ack 40 ------- 0 3.0 0.0 26 71
r 0.306117 0 2 tcp 1040 ------- 0 0.0 3.0 52 82
+ 0.306117 2 3 tcp 1040 ------- 0 0.0 3.0 52 82
r 0.307941 2 3 tcp 1040 ------- 0 0.0 3.0 30 47
+ 0.307941 3 2 ack 40 ------- 0 3.0 0.0 30 83
- 0.307941 3 2 ack 40 ------- 0 3.0 0.0 30 83
r 0.308 2 0 ack 40 ------- 0 3.0 0.0 26 71
+ 0.308 0 2 tcp 1040 ------- 0 0.0 3.0 53 84
- 0.308 0 2 tcp 1040 ------- 0 0.0 3.0 53 84
+ 0.308 0 2 tcp 1040 ------- 0 0.0 3.0 54 85
- 0.308832 0 2 tcp 1040 ------- 0 0.0 3.0 54 85
- 0.310128 2 3 tcp 1040 ------- 0 0.0 3.0 35 57
r 0.310832 0 2 tcp 1040 ------- 0 0.0 3.0 53 84
+ 0.310832 2 3 tcp 1040 ------- 0 0.0 3.0 53 84
r 0.311515 3 2 ack 40 ------- 0 3.0 0.0 27 74
+ 0.311515 2 0 ack 40 ------- 0 3.0 0.0 27 74
- 0.311515 2 0 ack 40 ------- 0 3.0 0.0 27 74
r 0.311664 0 2 tcp 1040 ------- 0 0.0 3.0 54 85
+ 0.311664 2 3 tcp 1040 ------- 0 0.0 3.0 54 85
r 0.313488 2 3 tcp 1040 ------- 0 0.0 3.0 31 51
+ 0.313488 3 2 ack 40 ------- 0 3.0 0.0 31 86
- 0.313488 3 2 ack 40 ------- 0 3.0 0.0 31 86
r 0.313547 2 0 ack 40 ------- 0 3.0 0.0 27 74
+ 0.313547 0 2 tcp 1040 ------- 0 0.0 3.0 55 87
- 0.313547 0 2 tcp 1040 ------- 0 0.0 3.0 55 87
+ 0.313547 0 2 tcp 1040 ------- 0 0.0 3.0 56 88
- 0.314379 0 2 tcp 1040 ------- 0 0.0 3.0 56 88
- 0.315675 2 3 tcp 1040 ------- 0 0.0 3.0 36 58
r 0.316379 0 2 tcp 1040 ------- 0 0.0 3.0 55 87
+ 0.316379 2 3 tcp 1040 ------- 0 0.0 3.0 55 87
r 0.317061 3 2 ack 40 ------- 0 3.0 0.0 28 77
+ 0.317061 2 0 ack 40 ------- 0 3.0 0.0 28 77
- 0.317061 2 0 ack 40 ------- 0 3.0 0.0 28 77
r 0.317211 0 2 tcp 1040 ------- 0 0.0 3.0 56 88
+ 0.317211 2 3 tcp 1040 ------- 0 0.0 3.0 56 88
r 0.319035 2 3 tcp 1040 ------- 0 0.0 3.0 32 52
+ 0.319035 3 2 ack 40 ------- 0 3.0 0.0 32 89
- 0.319035 3 2 ack 40 ------- 0 3.0 0.0 32 89
r 0.319093 2 0 ack 40 ------- 0 3.0 0.0 28 77
+ 0.319093 0 2 tcp 1040 ------- 0 0.0 3.0 57 90
- 0.319093 0 2 tcp 1040 ------- 0 0.0 3.0 57 90
+ 0.319093 0 2 tcp 1040 ------- 0 0.0 3.0 58 91
- 0.319925 0 2 tcp 1040 ------- 0 0.0 3.0 58 91
- 0.321221 2 3 tcp 1040 ------- 0 0.0 3.0 37 60
r 0.321925 0 2 tcp 1040 ------- 0 0.0 3.0 57 90
+ 0.321925 2 3 tcp 1040 ------- 0 0.0 3.0 57 90
r 0.322608 3 2 ack 40 ------- 0 3.0 0.0 29 80
+ 0.322608 2 0 ack 40 ------- 0 3.0 0.0 29 80
- 0.322608 2 0 ack 40 ------- 0 3.0 0.0 29 80
r 0.322757 0 2 tcp 1040 ------- 0 0.0 3.0 58 91
+ 0.322757 2 3 tcp 1040 ------- 0 0.0 3.0 58 91
r 0.324581 2 3 tcp 1040 ------- 0 0.0 3.0 33 54
+ 0.324581 3 2 ack 40 ------- 0 3.0 0.0 33 92
- 0.324581 3 2 ack 40 ------- 0 3.0 0.0 33 92
r 0.32464 2 0 ack 40 ------- 0 3.0 0.0 29 80
+ 0.32464 0 2 tcp 1040 ------- 0 0.0 3.0 59 93
- 0.32464 0 2 tcp 1040 ------- 0 0.0 3.0 59 93
+ 0.32464 0 2 tcp 1040 ------- 0 0.0 3.0 60 94
- 0.325472 0 2 tcp 1040 ------- 0 0.0 3.0 60 94
- 0.326768 2 3 tcp 1040 ------- 0 0.0 3.0 38 61
r 0.327472 0 2 tcp 1040 ------- 0 0.0 3.0 59 93
+ 0.327472 2 3 tcp 1040 ------- 0 0.0 3.0 59 93
r 0.328155 3 2 ack 40 ------- 0 3.0 0.0 30 83
+ 0.328155 2 0 ack 40 ------- 0 3.0 0.0 30 83
- 0.328155 2 0 ack 40 ------- 0 3.0 0.0 30 83
r 0.328304 0 2 tcp 1040 ------- 0 0.0 3.0 60 94
+ 0.328304 2 3 tcp 1040 ------- 0 0.0 3.0 60 94
r 0.330128 2 3 tcp 1040 ------- 0 0.0 3.0 34 55
+ 0.330128 3 2 ack 40 ------- 0 3.0 0.0 34 95
- 0.330128 3 2 ack 40 ------- 0 3.0 0.0 34 95
r 0.330187 2 0 ack 40 ------- 0 3.0 0.0 30 83
+ 0.330187 0 2 tcp 1040 ------- 0 0.0 3.0 61 96
- 0.330187 0 2 tcp 1040 ------- 0 0.0 3.0 61 96
+ 0.330187 0 2 tcp 1040 ------- 0 0.0 3.0 62 97
- 0.331019 0 2 tcp 1040 ------- 0 0.0 3.0 62 97
- 0.332315 2 3 tcp 1040 ------- 0 0.0 3.0 39 63
r 0.333019 0 2 tcp 1040 ------- 0 0.0 3.0 61 96
+ 0.333019 2 3 tcp 1040 ------- 0 0.0 3.0 61 96
r 0.333701 3 2 ack 40 ------- 0 3.0 0.0 31 86
+ 0.333701 2 0 ack 40 ------- 0 3.0 0.0 31 86
- 0.333701 2 0 ack 40 ------- 0 3.0 0.0 31 86
r 0.333851 0 2 tcp 1040 ------- 0 0.0 3.0 62 97
+ 0.333851 2 3 tcp 1040 ------- 0 0.0 3.0 62 97
r 0.335675 2 3 tcp 1040 ------- 0 0.0 3.0 35 57
+ 0.335675 3 2 ack 40 ------- 0 3.0 0.0 35 98
- 0.335675 3 2 ack 40 ------- 0 3.0 0.0 35 98
r 0.335733 2 0 ack 40 ------- 0 3.0 0.0 31 86
+ 0.335733 0 2 tcp 1040 ------- 0 0.0 3.0 63 99
- 0.335733 0 2 tcp 1040 ------- 0 0.0 3.0 63 99
+ 0.335733 0 2 tcp 1040 ------- 0 0.0 3.0 64 100
- 0.336565 0 2 tcp 1040 ------- 0 0.0 3.0 64 100
- 0.337861 2 3 tcp 1040 ------- 0 0.0 3.0 40 64
r 0.338565 0 2 tcp 1040 ------- 0 0.0 3.0 63 99
+ 0.338565 2 3 tcp 1040 ------- 0 0.0 3.0 63 99
r 0.339248 3 2 ack 40 ------- 0 3.0 0.0 32 89
+ 0.339248 2 0 ack 40 ------- 0 3.0 0.0 32 89
- 0.339248 2 0 ack 40 ------- 0 3.0 0.0 32 89
r 0.339397 0 2 tcp 1040 ------- 0 0.0 3.0 64 100
+ 0.339397 2 3 tcp 1040 ------- 0 0.0 3.0 64 100
r 0.341221 2 3 tcp 1040 ------- 0 0.0 3.0 36 58
+ 0.341221 3 2 ack 40 ------- 0 3.0 0.0 36 101
- 0.341221 3 2 ack 40 ------- 0 3.0 0.0 36 101
r 0.34128 2 0 ack 40 ------- 0 3.0 0.0 32 89
+ 0.34128 0 2 tcp 1040 ------- 0 0.0 3.0 65 102
- 0.34128 0 2 tcp 1040 ------- 0 0.0 3.0 65 102
+ 0.34128 0 2 tcp 1040 ------- 0 0.0 3.0 66 103
- 0.342112 0 2 tcp 1040 ------- 0 0.0 3.0 66 103
- 0.343408 2 3 tcp 1040 ------- 0 0.0 3.0 41 66
r 0.344112 0 2 tcp 1040 ------- 0 0.0 3.0 65 102
+ 0.344112 2 3 tcp 1040 ------- 0 0.0 3.0 65 102
r 0.344795 3 2 ack 40 ------- 0 3.0 0.0 33 92
+ 0.344795 2 0 ack 40 ------- 0 3.0 0.0 33 92
- 0.344795 2 0 ack 40 ------- 0 3.0 0.0 33 92
r 0.344944 0 2 tcp 1040 ------- 0 0.0 3.0 66 103
+ 0.344944 2 3 tcp 1040 ------- 0 0.0 3.0 66 103
r 0.346768 2 3 tcp 1040 ------- 0 0.0 3.0 37 60
+ 0.346768 3 2 ack 40 ------- 0 3.0 0.0 37 104
- 0.346768 3 2 ack 40 ------- 0 3.0 0.0 37 104
r 0.346827 2 0 ack 40 ------- 0 3.0 0.0 33 92
+ 0.346827 0 2 tcp 1040 ------- 0 0.0 3.0 67 105
- 0.346827 0 2 tcp 1040 ------- 0 0.0 3.0 67 105
+ 0.346827 0 2 tcp 1040 ------- 0 0.0 3.0 68 106
- 0.347659 0 2 tcp 1040 ------- 0 0.0 3.0 68 106
- 0.348955 2 3 tcp 1040 ------- 0 0.0 3.0 42 67
r 0.349659 0 2 tcp 1040 ------- 0 0.0 3.0 67 105
+ 0.349659 2 3 tcp 1040 ------- 0 0.0 3.0 67 105
r 0.350341 3 2 ack 40 ------- 0 3.0 0.0 34 95
+ 0.350341 2 0 ack 40 ------- 0 3.0 0.0 34 95
- 0.350341 2 0 ack 40 ------- 0 3.0 0.0 34 95
r 0.350491 0 2 tcp 1040 ------- 0 0.0 3.0 68 106
+ 0.350491 2 3 tcp 1040 ------- 0 0.0 3.0 68 106
r 0.352315 2 3 tcp 1040 ------- 0 0.0 3.0 38 61
+ 0.352315 3 2 ack 40 ------- 0 3.0 0.0 38 107
- 0.352315 3 2 ack 40 ------- 0 3.0 0.0 38 107
r 0.352373 2 0 ack 40 ------- 0 3.0 0.0 34 95
+ 0.352373 0 2 tcp 1040 ------- 0 0.0 3.0 69 108
- 0.352373 0 2 tcp 1040 ------- 0 0.0 3.0 69 108
+ 0.352373 0 2 tcp 1040 ------- 0 0.0 3.0 70 109
- 0.353205 0 2 tcp 1040 ------- 0 0.0 3.0 70 109
- 0.354501 2 3 tcp 1040 ------- 0 0.0 3.0 43 69
r 0.355205 0 2 tcp 1040 ------- 0 0.0 3.0 69 108
+ 0.355205 2 3 tcp 1040 ------- 0 0.0 3.0 69 108
r 0.355888 3 2 ack 40 ------- 0 3.0 0.0 35 98
+ 0.355888 2 0 ack 40 ------- 0 3.0 0.0 35 98
- 0.355888 2 0 ack 40 ------- 0 3.0 0.0 35 98
r 0.356037 0 2 tcp 1040 ------- 0 0.0 3.0 70 109
+ 0.356037 2 3 tcp 1040 ------- 0 0.0 3.0 70 109
r 0.357861 2 3 tcp 1040 ------- 0 0.0 3.0 39 63
+ 0.357861 3 2 ack 40 ------- 0 3.0 0.0 39 110
- 0.357861 3 2 ack 40 ------- 0 3.0 0.0 39 110
r 0.35792 2 0 ack 40 ------- 0 3.0 0.0 35 98
+ 0.35792 0 2 tcp 1040 ------- 0 0.0 3.0 71 111
- 0.35792 0 2 tcp 1040 ------- 0 0.0 3.0 71 111
+ 0.35792 0 2 tcp 1040 ------- 0 0.0 3.0 72 112
- 0.358752 0 2 tcp 1040 ------- 0 0.0 3.0 72 112
- 0.360048 2 3 tcp 1040 ------- 0 0.0 3.0 44 70
r 0.360752 0 2 tcp 1040 ------- 0 0.0 3.0 71 111
+ 0.360752 2 3 tcp 1040 ------- 0 0.0 3.0 71 111
r 0.361435 3 2 ack 40 ------- 0 3.0 0.0 36 101
+ 0.361435 2 0 ack 40 ------- 0 3.0 0.0 36 101
- 0.361435 2 0 ack 40 ------- 0 3.0 0.0 36 101
r 0.361584 0 2 tcp 1040 ------- 0 0.0 3.0 72 112
+ 0.361584 2 3 tcp 1040 ------- 0 0.0 3.0 72 112
r 0.363408 2 3 tcp 1040 ------- 0 0.0 3.0 40 64
+ 0.363408 3 2 ack 40 ------- 0 3.0 0.0 40 113
- 0.363408 3 2 ack 40 ------- 0 3.0 0.0 40 113
r 0.363467 2 0 ack 40 ------- 0 3.0 0.0 36 101
+ 0.363467 0 2 tcp 1040 ------- 0 0.0 3.0 73 114
- 0.363467 0 2 tcp 1040 ------- 0 0.0 3.0 73 114
+ 0.363467 0 2 tcp 1040 ------- 0 0.0 3.0 74 115
- 0.364299 0 2 tcp 1040 ------- 0 0.0 3.0 74 115
- 0.365595 2 3 tcp 1040 ------- 0 0.0 3.0 45 72
r 0.366299 0 2 tcp 1040 ------- 0 0.0 3.0 73 114
+ 0.366299 2 3 tcp 1040 ------- 0 0.0 3.0 73 114
r 0.366981 3 2 ack 40 ------- 0 3.0 0.0 37 104
+ 0.366981 2 0 ack 40 ------- 0 3.0 0.0 37 104
- 0.366981 2 0 ack 40 ------- 0 3.0 0.0 37 104
r 0.367131 0 2 tcp 1040 ------- 0 0.0 3.0 74 115
+ 0.367131 2 3 tcp 1040 ------- 0 0.0 3.0 74 115
r 0.368955 2 3 tcp 1040 ------- 0 0.0 3.0 41 66
+ 0.368955 3 2 ack 40 ------- 0 3.0 0.0 41 116
- 0.368955 3 2 ack 40 ------- 0 3.0 0.0 41 116
r 0.369013 2 0 ack 40 ------- 0 3.0 0.0 37 104
+ 0.369013 0 2 tcp 1040 ------- 0 0.0 3.0 75 117
- 0.369013 0 2 tcp 1040 ------- 0 0.0 3.0 75 117
+ 0.369013 0 2 tcp 1040 ------- 0 0.0 3.0 76 118
- 0.369845 0 2 tcp 1040 ------- 0 0.0 3.0 76 118
- 0.371141 2 3 tcp 1040 ------- 0 0.0 3.0 46 73
r 0.371845 0 2 tcp 1040 ------- 0 0.0 3.0 75 117
+ 0.371845 2 3 tcp 1040 ------- 0 0.0 3.0 75 117
r 0.372528 3 2 ack 40 ------- 0 3.0 0.0 38 107
+ 0.372528 2 0 ack 40 ------- 0 3.0 0.0 38 107
- 0.372528 2 0 ack 40 ------- 0 3.0 0.0 38 107
r 0.372677 0 2 tcp 1040 ------- 0 0.0 3.0 76 118
+ 0.372677 2 3 tcp 1040 ------- 0 0.0 3.0 76 118
d 0.372677 2 3 tcp 1040 ------- 0 0.0 3.0 76 118
r 0.374501 2 3 tcp 1040 ------- 0 0.0 3.0 42 67