v testName dialup
+ 0.034334 2 3 tcp 40 ------- 0 0.0 3.0 0 0
- 0.034334 2 3 tcp 40 ------- 0 0.0 3.0 0 0
r 0.044734 2 3 tcp 40 ------- 0 0.0 3.0 0 0
+ 0.055134 2 1 ack 40 ------- 0 3.0 0.0 0 1
- 0.055134 2 1 ack 40 ------- 0 3.0 0.0 0 1
r 0.089467 2 1 ack 40 ------- 0 3.0 0.0 0 1
+ 1.340479 2 3 tcp 1500 ------- 0 0.0 3.0 1 2
- 1.340479 2 3 tcp 1500 ------- 0 0.0 3.0 1 2
r 1.365479 2 3 tcp 1500 ------- 0 0.0 3.0 1 2
+ 1.375879 2 1 ack 40 ------- 0 3.0 0.0 1 6
- 1.375879 2 1 ack 40 ------- 0 3.0 0.0 1 6
r 1.410213 2 1 ack 40 ------- 0 3.0 0.0 1 6
+ 2.590479 2 3 tcp 1500 ------- 0 0.0 3.0 2 3
- 2.590479 2 3 tcp 1500 ------- 0 0.0 3.0 2 3
r 2.615479 2 3 tcp 1500 ------- 0 0.0 3.0 2 3
+ 2.625879 2 1 ack 40 ------- 0 3.0 0.0 2 10
- 2.625879 2 1 ack 40 ------- 0 3.0 0.0 2 10
r 2.660213 2 1 ack 40 ------- 0 3.0 0.0 2 10
+ 3.840479 2 3 tcp 1500 ------- 0 0.0 3.0 3 4
- 3.840479 2 3 tcp 1500 ------- 0 0.0 3.0 3 4
r 3.865479 2 3 tcp 1500 ------- 0 0.0 3.0 3 4
+ 3.875879 2 1 ack 40 ------- 0 3.0 0.0 3 14
- 3.875879 2 1 ack 40 ------- 0 3.0 0.0 3 14
r 3.910213 2 1 ack 40 ------- 0 3.0 0.0 3 14
+ 5.090479 2 3 tcp 1500 ---A--- 0 0.0 3.0 1 5
- 5.090479 2 3 tcp 1500 ---A--- 0 0.0 3.0 1 5
r 5.115479 2 3 tcp 1500 ---A--- 0 0.0 3.0 1 5
+ 5.125879 2 1 ack 40 ------- 0 3.0 0.0 3 17
- 5.125879 2 1 ack 40 ------- 0 3.0 0.0 3 17
r 5.160213 2 1 ack 40 ------- 0 3.0 0.0 3 17
+ 6.340479 2 3 tcp 1500 ------- 0 0.0 3.0 2 7
- 6.340479 2 3 tcp 1500 ------- 0 0.0 3.0 2 7
r 6.365479 2 3 tcp 1500 ------- 0 0.0 3.0 2 7
+ 6.375879 2 1 ack 40 ------- 0 3.0 0.0 3 19
- 6.375879 2 1 ack 40 ------- 0 3.0 0.0 3 19
r 6.410213 2 1 ack 40 ------- 0 3.0 0.0 3 19
+ 7.590479 2 3 tcp 1500 ------- 0 0.0 3.0 3 8
- 7.590479 2 3 tcp 1500 ------- 0 0.0 3.0 3 8
r 7.615479 2 3 tcp 1500 ------- 0 0.0 3.0 3 8
+ 7.625879 2 1 ack 40 ------- 0 3.0 0.0 3 20
- 7.625879 2 1 ack 40 ------- 0 3.0 0.0 3 20
r 7.660213 2 1 ack 40 ------- 0 3.0 0.0 3 20
+ 8.840479 2 3 tcp 1500 ---A--- 0 0.0 3.0 2 9
- 8.840479 2 3 tcp 1500 ---A--- 0 0.0 3.0 2 9
r 8.865479 2 3 tcp 1500 ---A--- 0 0.0 3.0 2 9
+ 8.875879 2 1 ack 40 ------- 0 3.0 0.0 3 21
- 8.875879 2 1 ack 40 ------- 0 3.0 0.0 3 21
r 8.910213 2 1 ack 40 ------- 0 3.0 0.0 3 21
+ 10.090479 2 3 tcp 1500 ------- 0 0.0 3.0 3 11
- 10.090479 2 3 tcp 1500 ------- 0 0.0 3.0 3 11
r 10.115479 2 3 tcp 1500 ------- 0 0.0 3.0 3 11
+ 10.125879 2 1 ack 40 ------- 0 3.0 0.0 3 22
- 10.125879 2 1 ack 40 ------- 0 3.0 0.0 3 22
r 10.160213 2 1 ack 40 ------- 0 3.0 0.0 3 22
+ 11.340479 2 3 tcp 1500 ------- 0 0.0 3.0 4 12
- 11.340479 2 3 tcp 1500 ------- 0 0.0 3.0 4 12
r 11.365479 2 3 tcp 1500 ------- 0 0.0 3.0 4 12
+ 11.375879 2 1 ack 40 ------- 0 3.0 0.0 4 24
- 11.375879 2 1 ack 40 ------- 0 3.0 0.0 4 24
r 11.410213 2 1 ack 40 ------- 0 3.0 0.0 4 24
+ 12.590479 2 3 tcp 1500 ---A--- 0 0.0 3.0 3 13
- 12.590479 2 3 tcp 1500 ---A--- 0 0.0 3.0 3 13
r 12.615479 2 3 tcp 1500 ---A--- 0 0.0 3.0 3 13
+ 12.625879 2 1 ack 40 ------- 0 3.0 0.0 4 27
- 12.625879 2 1 ack 40 ------- 0 3.0 0.0 4 27
r 12.660213 2 1 ack 40 ------- 0 3.0 0.0 4 27
+ 13.840479 2 3 tcp 1500 ------- 0 0.0 3.0 4 15
- 13.840479 2 3 tcp 1500 ------- 0 0.0 3.0 4 15
r 13.865479 2 3 tcp 1500 ------- 0 0.0 3.0 4 15
+ 13.875879 2 1 ack 40 ------- 0 3.0 0.0 4 28
- 13.875879 2 1 ack 40 ------- 0 3.0 0.0 4 28
r 13.910213 2 1 ack 40 ------- 0 3.0 0.0 4 28
+ 15.090479 2 3 tcp 1500 ------- 0 0.0 3.0 5 16
- 15.090479 2 3 tcp 1500 ------- 0 0.0 3.0 5 16
r 15.115479 2 3 tcp 1500 ------- 0 0.0 3.0 5 16
+ 15.125879 2 1 ack 40 ------- 0 3.0 0.0 5 29
- 15.125879 2 1 ack 40 ------- 0 3.0 0.0 5 29
r 15.160213 2 1 ack 40 ------- 0 3.0 0.0 5 29
+ 16.340479 2 3 tcp 1500 ---A--- 0 0.0 3.0 4 18
- 16.340479 2 3 tcp 1500 ---A--- 0 0.0 3.0 4 18
r 16.365479 2 3 tcp 1500 ---A--- 0 0.0 3.0 4 18
+ 16.375879 2 1 ack 40 ------- 0 3.0 0.0 5 31
- 16.375879 2 1 ack 40 ------- 0 3.0 0.0 5 31
r 16.410213 2 1 ack 40 ------- 0 3.0 0.0 5 31
+ 17.590479 2 3 tcp 1500 ---A--- 0 0.0 3.0 4 23
- 17.590479 2 3 tcp 1500 ---A--- 0 0.0 3.0 4 23
r 17.615479 2 3 tcp 1500 ---A--- 0 0.0 3.0 4 23
+ 17.625879 2 1 ack 40 ------- 0 3.0 0.0 5 32
- 17.625879 2 1 ack 40 ------- 0 3.0 0.0 5 32
r 17.660213 2 1 ack 40 ------- 0 3.0 0.0 5 32
+ 18.840479 2 3 tcp 1500 ------- 0 0.0 3.0 5 25
- 18.840479 2 3 tcp 1500 ------- 0 0.0 3.0 5 25
r 18.865479 2 3 tcp 1500 ------- 0 0.0 3.0 5 25
+ 18.875879 2 1 ack 40 ------- 0 3.0 0.0 5 33
- 18.875879 2 1 ack 40 ------- 0 3.0 0.0 5 33
r 18.910213 2 1 ack 40 ------- 0 3.0 0.0 5 33
+ 20.090479 2 3 tcp 1500 ------- 0 0.0 3.0 6 26
- 20.090479 2 3 tcp 1500 ------- 0 0.0 3.0 6 26
r 20.115479 2 3 tcp 1500 ------- 0 0.0 3.0 6 26
+ 20.125879 2 1 ack 40 ------- 0 3.0 0.0 6 34
- 20.125879 2 1 ack 40 ------- 0 3.0 0.0 6 34
r 20.160213 2 1 ack 40 ------- 0 3.0 0.0 6 34
+ 21.340479 2 3 tcp 1500 ------- 0 0.0 3.0 7 30
- 21.340479 2 3 tcp 1500 ------- 0 0.0 3.0 7 30
r 21.365479 2 3 tcp 1500 ------- 0 0.0 3.0 7 30
+ 21.375879 2 1 ack 40 ------- 0 3.0 0.0 7 36
- 21.375879 2 1 ack 40 ------- 0 3.0 0.0 7 36
r 21.410213 2 1 ack 40 ------- 0 3.0 0.0 7 36
+ 22.590479 2 3 tcp 1500 ------- 0 0.0 3.0 8 35
- 22.590479 2 3 tcp 1500 ------- 0 0.0 3.0 8 35
r 22.615479 2 3 tcp 1500 ------- 0 0.0 3.0 8 35
+ 22.625879 2 1 ack 40 ------- 0 3.0 0.0 8 39
- 22.625879 2 1 ack 40 ------- 0 3.0 0.0 8 39
r 22.660213 2 1 ack 40 ------- 0 3.0 0.0 8 39
+ 23.840479 2 3 tcp 1500 ------- 0 0.0 3.0 9 37
- 23.840479 2 3 tcp 1500 ------- 0 0.0 3.0 9 37
r 23.865479 2 3 tcp 1500 ------- 0 0.0 3.0 9 37
+ 23.875879 2 1 ack 40 ------- 0 3.0 0.0 9 41
- 23.875879 2 1 ack 40 ------- 0 3.0 0.0 9 41
r 23.910213 2 1 ack 40 ------- 0 3.0 0.0 9 41
+ 25.090479 2 3 tcp 1500 ------- 0 0.0 3.0 10 38
- 25.090479 2 3 tcp 1500 ------- 0 0.0 3.0 10 38
r 25.115479 2 3 tcp 1500 ------- 0 0.0 3.0 10 38
+ 25.125879 2 1 ack 40 ------- 0 3.0 0.0 10 43
- 25.125879 2 1 ack 40 ------- 0 3.0 0.0 10 43
r 25.160213 2 1 ack 40 ------- 0 3.0 0.0 10 43
+ 26.340479 2 3 tcp 1500 ------- 0 0.0 3.0 11 40
- 26.340479 2 3 tcp 1500 ------- 0 0.0 3.0 11 40
r 26.365479 2 3 tcp 1500 ------- 0 0.0 3.0 11 40
+ 26.375879 2 1 ack 40 ------- 0 3.0 0.0 11 46
- 26.375879 2 1 ack 40 ------- 0 3.0 0.0 11 46
r 26.410213 2 1 ack 40 ------- 0 3.0 0.0 11 46
+ 27.590479 2 3 tcp 1500 ------- 0 0.0 3.0 12 42
- 27.590479 2 3 tcp 1500 ------- 0 0.0 3.0 12 42
r 27.615479 2 3 tcp 1500 ------- 0 0.0 3.0 12 42
+ 27.625879 2 1 ack 40 ------- 0 3.0 0.0 12 48
- 27.625879 2 1 ack 40 ------- 0 3.0 0.0 12 48
r 27.660213 2 1 ack 40 ------- 0 3.0 0.0 12 48
+ 28.840479 2 3 tcp 1500 ------- 0 0.0 3.0 13 44
- 28.840479 2 3 tcp 1500 ------- 0 0.0 3.0 13 44
r 28.865479 2 3 tcp 1500 ------- 0 0.0 3.0 13 44
+ 28.875879 2 1 ack 40 ------- 0 3.0 0.0 13 50
- 28.875879 2 1 ack 40 ------- 0 3.0 0.0 13 50
r 28.910213 2 1 ack 40 ------- 0 3.0 0.0 13 50
